[
	{
	  "atomicNumber": 1,
	  "standartAtomicWeight": 1.008,
	  "ionizationEnergy": "1312.0",
	  "chemicalSymbol": "H",
	  "name": "Hydrogen",
	  "russianName": "Водород",
	  "electronCongiguration": "1s¹",
	  "electronegativity": "2.20",
	  "oxidationStates": ["+1", "-1"],
	  "gridPositionRowColumn": [1, 1],
	  "backgroundColor": "#F6FF99"
	},
	{
		"atomicNumber": 2,
		"standartAtomicWeight": 4.0026,
		"ionizationEnergy": "2372.3",
		"chemicalSymbol": "He",
		"name": "Helium",
		"russianName": "Гелий",
		"electronCongiguration": "1s²",
		"electronegativity": null,
		"oxidationStates": "",
		"gridPositionRowColumn": [1, 19],
		"backgroundColor": "#c0ffff"
	},
	{
		"atomicNumber": 3,
		"standartAtomicWeight": 6.94,
		"ionizationEnergy": "520.2",
		"chemicalSymbol": "Li",
		"name": "Lithium",
		"russianName": "Литий",
		"electronCongiguration": "1s² 2s¹",
		"electronegativity": 0.98,
		"oxidationStates": ["+1", "-1"],
		"gridPositionRowColumn": [2, 1],
		"backgroundColor": "#ff6666"
	},
	  {
		"atomicNumber": 4,
		"standartAtomicWeight": 9.0122,
		"ionizationEnergy": 900,
		"chemicalSymbol": "Be",
		"name": "Beryllium",
		"russianName": "Бериллий",
		"electronCongiguration": "1s² 2s²",
		"electronegativity": 1.57,
		"oxidationStates": ["+2"],
		"gridPositionRowColumn": [2, 2],
		"backgroundColor": "#FDEBC4"
	  },
	  {
		"atomicNumber": 5,
		"standartAtomicWeight": 10.81,
		"ionizationEnergy": "800.6",
		"chemicalSymbol": "B",
		"name": "Boron",
		"russianName": "Бор",
		"electronCongiguration": "1s² 2s² 2p¹",
		"electronegativity": 2.04,
		"oxidationStates": ["+3", "+2", "+1"],
		"gridPositionRowColumn": [2, 14],
		"backgroundColor": "#cccc99"
	  },
	  {
		"atomicNumber": 6,
		"standartAtomicWeight": 12.01,
		"ionizationEnergy": 1086,
		"chemicalSymbol": "C",
		"name": "Carbon",
		"russianName": "Углерод",
		"electronCongiguration": "1s² 2s² 2p²",
		"electronegativity": 2.55,
		"oxidationStates": ["+4", "+3", "+2", "+1", "-1", "-2", "-3", "-4"],
		"gridPositionRowColumn": [2, 15],
		"backgroundColor": "#F6FF99"
	  },
	  {
		"atomicNumber": 7,
		"standartAtomicWeight": 14.01,
		"ionizationEnergy": 1402.3,
		"chemicalSymbol": "N",
		"name": "Nitrogen",
		"russianName": "Азот",
		"electronCongiguration": "1s² 2s² 2p³",
		"electronegativity": 3.04,
		"oxidationStates": ["+5", "+4", "+3", "+2", "+1", "-1", "-2", "-3"],
		"gridPositionRowColumn": [2, 16],
		"backgroundColor": "#F6FF99"
	  },
	  {
		"atomicNumber": 8,
		"standartAtomicWeight": 16.00,
		"ionizationEnergy": 1314,
		"chemicalSymbol": "O",
		"name": "Oxygen",
		"russianName": "Кислород",
		"electronCongiguration": "1s² 2s² 2p⁴",
		"electronegativity": 3.44,
		"oxidationStates": ["+2", "+1", "-1", "-2"],
		"gridPositionRowColumn": [2, 17],
		"backgroundColor": "#F6FF99"
	  },
	  {
		"atomicNumber": 9,
		"standartAtomicWeight": "18.998",
		"ionizationEnergy": "1681.0",
		"chemicalSymbol": "F",
		"name": "Fluorine",
		"russianName": "Фтор",
		"electronCongiguration": "1s² 2s² 2p⁵",
		"electronegativity": 3.98,
		"oxidationStates": [-1],
		"gridPositionRowColumn": [2, 18],
		"backgroundColor": "#F6FF99"
	  },
	  {
		"atomicNumber": 10,
		"standartAtomicWeight": "20.180",
		"ionizationEnergy": 2080.7,
		"chemicalSymbol": "Ne",
		"name": "Neon",
		"russianName": "Неон",
		"electronCongiguration": "1s² 2s² 2p⁶",
		"electronegativity": null,
		"oxidationStates": "",
		"gridPositionRowColumn": [2, 19],
		"backgroundColor": "#c0ffff"
	  },
	  {
		"atomicNumber": 11,
		"standartAtomicWeight": 22.99,
		"ionizationEnergy": 496,
		"chemicalSymbol": "Na",
		"name": "Sodium",
		"russianName": "Натрий",
		"electronCongiguration": "[Ne] 3s¹",
		"electronegativity": 0.93,
		"oxidationStates": [1],
		"gridPositionRowColumn": [3, 1],
		"backgroundColor": "#ff6666"
	  },
	  {
		"atomicNumber": 12,
		"standartAtomicWeight": 24.31,
		"ionizationEnergy": 738,
		"chemicalSymbol": "Mg",
		"name": "Magnesium",
		"russianName": "Магний",
		"electronCongiguration": "[Ne] 3s²",
		"electronegativity": 1.31,
		"oxidationStates": [2],
		"gridPositionRowColumn": [3, 2],
		"backgroundColor": "#FDEBC4"
	  },
	  {
		"atomicNumber": 13,
		"standartAtomicWeight": 26.98,
		"ionizationEnergy": 578,
		"chemicalSymbol": "Al",
		"name": "Aluminum",
		"russianName": "Алюминий",
		"electronCongiguration": "[Ne] 3s² 3p¹",
		"electronegativity": 1.61,
		"oxidationStates": [3],
		"gridPositionRowColumn": [3, 14],
		"backgroundColor": "#CCCCCC"
	  },
	  {
		"atomicNumber": 14,
		"standartAtomicWeight": 28.09,
		"ionizationEnergy": 787,
		"chemicalSymbol": "Si",
		"name": "Silicon",
		"russianName": "Кремний",
		"electronCongiguration": "[Ne] 3s² 3p²",
		"electronegativity": 1.90,
		"oxidationStates": [4],
		"gridPositionRowColumn": [3, 15],
		"backgroundColor": "#cccc99"
	  },
	  {
		"atomicNumber": 15,
		"standartAtomicWeight": 30.97,
		"ionizationEnergy": 1012,
		"chemicalSymbol": "P",
		"name": "Phosphorus",
		"russianName": "Фосфор",
		"electronCongiguration": "[Ne] 3s² 3p³",
		"electronegativity": 2.19,
		"oxidationStates": [3, -3],
		"gridPositionRowColumn": [3, 16],
		"backgroundColor": "#F6FF99"
	  },
	  {
		"atomicNumber": 16,
		"standartAtomicWeight": 32.06,
		"ionizationEnergy": 1000,
		"chemicalSymbol": "S",
		"name": "Sulfur",
		"russianName": "Сера",
		"electronCongiguration": "[Ne] 3s² 3p⁴",
		"electronegativity": 2.58,
		"oxidationStates": [2, -2, 6],
		"gridPositionRowColumn": [3, 17],
		"backgroundColor": "#F6FF99"
	  },
	  {
		"atomicNumber": 17,
		"standartAtomicWeight": 35.45,
		"ionizationEnergy": 1251,
		"chemicalSymbol": "Cl",
		"name": "Chlorine",
		"russianName": "Хлор",
		"electronCongiguration": "[Ne] 3s² 3p⁵",
		"electronegativity": 3.16,
		"oxidationStates": [-1],
		"gridPositionRowColumn": [3, 18],
		"backgroundColor": "#F6FF99"
	  },
	  {
		"atomicNumber": 18,
		"standartAtomicWeight": 39.95,
		"ionizationEnergy": 1402,
		"chemicalSymbol": "Ar",
		"name": "Argon",
		"russianName": "Аргон",
		"electronCongiguration": "[Ne] 3s² 3p⁶",
		"electronegativity": null,
		"oxidationStates": "",
		"gridPositionRowColumn": [3, 19],
		"backgroundColor": "#c0ffff"
	  },
	  {
		"atomicNumber": 19,
		"standartAtomicWeight": 39.10,
		"ionizationEnergy": 496,
		"chemicalSymbol": "K",
		"name": "Potassium",
		"russianName": "Калий",
		"electronCongiguration": "[Ar] 4s¹",
		"electronegativity": 0.82,
		"oxidationStates": [1],
		"gridPositionRowColumn": [4, 1],
		"backgroundColor": "#ff6666"
	  },
	  {
		"atomicNumber": 20,
		"standartAtomicWeight": 40.08,
		"ionizationEnergy": 738,
		"chemicalSymbol": "Ca",
		"name": "Calcium",
		"russianName": "Кальций",
		"electronCongiguration": "[Ar] 4s²",
		"electronegativity": 1.00,
		"oxidationStates": [2],
		"gridPositionRowColumn": [4, 2],
		"backgroundColor": "#FDEBC4"
	  },
	  {
		"atomicNumber": 21,
		"standartAtomicWeight": 44.96,
		"ionizationEnergy": 577,
		"chemicalSymbol": "Sc",
		"name": "Scandium",
		"russianName": "Скандий",
		"electronCongiguration": "[Ar] 3d¹ 4s²",
		"electronegativity": 1.36,
		"oxidationStates": [3],
		"gridPositionRowColumn": [4, 3],
		"backgroundColor": "#ffc0c0"
	  },
	  {
		"atomicNumber": 22,
		"standartAtomicWeight": 47.87,
		"ionizationEnergy": 760,
		"chemicalSymbol": "Ti",
		"name": "Titanium",
		"russianName": "Титан",
		"electronCongiguration": "[Ar] 3d² 4s²",
		"electronegativity": 1.54,
		"oxidationStates": [4],
		"gridPositionRowColumn": [4, 5],
		"backgroundColor": "#ffc0c0"
	  },
	  {
		"atomicNumber": 23,
		"standartAtomicWeight": 50.94,
		"ionizationEnergy": 760,
		"chemicalSymbol": "V",
		"name": "Vanadium",
		"russianName": "Ванадий",
		"electronCongiguration": "[Ar] 3d³ 4s²",
		"electronegativity": 1.63,
		"oxidationStates": [2, 3, 4],
		"gridPositionRowColumn": [4, 6],
		"backgroundColor": "#ffc0c0"
	  },
	  {
		"atomicNumber": 24,
		"standartAtomicWeight": 51.996,
		"ionizationEnergy": 760,
		"chemicalSymbol": "Cr",
		"name": "Chromium",
		"russianName": "Хром",
		"electronCongiguration": "[Ar] 3d⁵ 4s¹",
		"electronegativity": 1.66,
		"oxidationStates": [2, 3, 6],
		"gridPositionRowColumn": [4, 7],
		"backgroundColor": "#ffc0c0"
	  },
	  {
		"atomicNumber": 25,
		"standartAtomicWeight": 54.94,
		"ionizationEnergy": 760,
		"chemicalSymbol": "Mn",
		"name": "Manganese",
		"russianName": "Марганец",
		"electronCongiguration": "[Ar] 3d⁵ 4s²",
		"electronegativity": 1.55,
		"oxidationStates": [2, 4, 7],
		"gridPositionRowColumn": [4, 8],
		"backgroundColor": "#ffc0c0"
	  },
	  {
		"atomicNumber": 26,
		"standartAtomicWeight": 55.845,
		"ionizationEnergy": "762.5",
		"chemicalSymbol": "Fe",
		"name": "Iron",
		"russianName": "Железо",
		"electronCongiguration": "[Ar] 3d^6 4s²",
		"electronegativity": 1.83,
		"oxidationStates": ["+6", "+5", "+4", "+3", "+2", "+1", "-1", "-2"],
		"gridPositionRowColumn": [4, 9],
		"backgroundColor": "#ffc0c0"
	  },
	  {
		"atomicNumber": 27,
		"standartAtomicWeight": 58.93,
		"ionizationEnergy": 760,
		"chemicalSymbol": "Co",
		"name": "Cobalt",
		"russianName": "Кобальт",
		"electronCongiguration": "[Ar] 3d⁷ 4s²",
		"electronegativity": 1.88,
		"oxidationStates": [2, 3],
		"gridPositionRowColumn": [4, 10],
		"backgroundColor": "#ffc0c0"
	  },
	  {
		"atomicNumber": 28,
		"standartAtomicWeight": 58.69,
		"ionizationEnergy": 760,
		"chemicalSymbol": "Ni",
		"name": "Nickel",
		"russianName": "Никель",
		"electronCongiguration": "[Ar] 3d^8 4s²",
		"electronegativity": 1.91,
		"oxidationStates": [2, 3],
		"gridPositionRowColumn": [4, 11],
		"backgroundColor": "#ffc0c0"
	  },
	  {
		"atomicNumber": 29,
		"standartAtomicWeight": 63.546,
		"ionizationEnergy": 760,
		"chemicalSymbol": "Cu",
		"name": "Copper",
		"russianName": "Медь",
		"electronCongiguration": "[Ar] 3d⁹ 4s²",
		"electronegativity": 1.9,
		"oxidationStates": [1, 2],
		"gridPositionRowColumn": [4, 12],
		"backgroundColor": "#ffc0c0"
	  },
	  {
		"atomicNumber": 30,
		"standartAtomicWeight": 65.38,
		"ionizationEnergy": 760,
		"chemicalSymbol": "Zn",
		"name": "Zinc",
		"russianName": "Цинк",
		"electronCongiguration": "[Ar] 3d¹⁰ 4s²",
		"electronegativity": 1.65,
		"oxidationStates": [2],
		"gridPositionRowColumn": [4, 13],
		"backgroundColor": "#CCCCCC"
	  },
	  {
		"atomicNumber": 31,
		"standartAtomicWeight": 69.723,
		"ionizationEnergy": 760,
		"chemicalSymbol": "Ga",
		"name": "Gallium",
		"russianName": "Галлий",
		"electronCongiguration": "[Ar] 3d¹⁰ 4s² 4p¹",
		"electronegativity": 1.81,
		"oxidationStates": [3],
		"gridPositionRowColumn": [4, 14],
		"backgroundColor": "#CCCCCC"
	  },
	  {
		"atomicNumber": 32,
		"standartAtomicWeight": 72.630,
		"ionizationEnergy": 760,
		"chemicalSymbol": "Ge",
		"name": "Germanium",
		"russianName": "Германий",
		"electronCongiguration": "[Ar] 3d¹⁰ 4s² 4p²",
		"electronegativity": 2.01,
		"oxidationStates": [4],
		"gridPositionRowColumn": [4, 15],
		"backgroundColor": "#cccc99"
	  },
	  {
		"atomicNumber": 33,
		"standartAtomicWeight": 74.922,
		"ionizationEnergy": 760,
		"chemicalSymbol": "As",
		"name": "Arsenic",
		"russianName": "Мышьяк",
		"electronCongiguration": "[Ar] 3d¹⁰ 4s² 4p³",
		"electronegativity": 2.18,
		"oxidationStates": [-3, 2, 3, 5],
		"gridPositionRowColumn": [4, 16],
		"backgroundColor": "#cccc99"
	  },
	  {
		"atomicNumber": 34,
		"standartAtomicWeight": 78.971,
		"ionizationEnergy": 760,
		"chemicalSymbol": "Se",
		"name": "Selenium",
		"russianName": "Селен",
		"electronCongiguration": "[Ar] 3d¹⁰ 4s² 4p⁴",
		"electronegativity": 2.55,
		"oxidationStates": [-2, 2, 4, 6],
		"gridPositionRowColumn": [4, 17],
		"backgroundColor": "#F6FF99"
	  },
	  {
		"atomicNumber": 35,
		"standartAtomicWeight": 79.904,
		"ionizationEnergy": 760,
		"chemicalSymbol": "Br",
		"name": "Bromine",
		"russianName": "Бром",
		"electronCongiguration": "[Ar] 3d¹⁰ 4s² 4p⁵",
		"electronegativity": 2.96,
		"oxidationStates": [-1, 1, 3, 5, 7],
		"gridPositionRowColumn": [4, 18],
		"backgroundColor": "#F6FF99"
	  },
	  {
		"atomicNumber": 36,
		"standartAtomicWeight": 83.798,
		"ionizationEnergy": 760,
		"chemicalSymbol": "Kr",
		"name": "Krypton",
		"russianName": "Криптон",
		"electronCongiguration": "[Ar] 3d¹⁰ 4s² 4p⁶",
		"electronegativity": null,
		"oxidationStates": [2],
		"gridPositionRowColumn": [4, 19],
		"backgroundColor": "#c0ffff"
	  },
	  {
		"atomicNumber": 37,
		"standartAtomicWeight": 85.468,
		"ionizationEnergy": 760,
		"chemicalSymbol": "Rb",
		"name": "Rubidium",
		"russianName": "Рубидий",
		"electronCongiguration": "[Kr] 5s¹",
		"electronegativity": 0.82,
		"oxidationStates": [1],
		"gridPositionRowColumn": [5, 1],
		"backgroundColor": "#ff6666"
	  },
	  {
		"atomicNumber": 38,
		"standartAtomicWeight": 87.620,
		"ionizationEnergy": 760,
		"chemicalSymbol": "Sr",
		"name": "Strontium",
		"russianName": "Стронций",
		"electronCongiguration": "[Kr] 5s²",
		"electronegativity": 0.95,
		"oxidationStates": [2],
		"gridPositionRowColumn": [5, 2],
		"backgroundColor": "#FDEBC4"
	  },
	  {
		"atomicNumber": 39,
		"standartAtomicWeight": 88.906,
		"ionizationEnergy": 760,
		"chemicalSymbol": "Y",
		"name": "Yttrium",
		"russianName": "Иттрий",
		"electronCongiguration": "[Kr] 4d¹ 5s²",
		"electronegativity": 1.22,
		"oxidationStates": [3],
		"gridPositionRowColumn": [5, 3],
		"backgroundColor": "#ffc0c0"
	  },
	  {
		"atomicNumber": 40,
		"standartAtomicWeight": 91.224,
		"ionizationEnergy": 760,
		"chemicalSymbol": "Zr",
		"name": "Zirconium",
		"russianName": "Цирконий",
		"electronCongiguration": "[Kr] 4d² 5s²",
		"electronegativity": 1.33,
		"oxidationStates": [4],
		"gridPositionRowColumn": [5, 5],
		"backgroundColor": "#ffc0c0"
	  },
	  {
		"atomicNumber": 41,
		"standartAtomicWeight": 92.906,
		"ionizationEnergy": 760,
		"chemicalSymbol": "Nb",
		"name": "Niobium",
		"russianName": "Ниобий",
		"electronCongiguration": "[Kr] 4d⁴ 5s¹",
		"electronegativity": 1.6,
		"oxidationStates": [5],
		"gridPositionRowColumn": [5, 6],
		"backgroundColor": "#ffc0c0"
	  },
	  {
		"atomicNumber": 42,
		"standartAtomicWeight": 95.94,
		"ionizationEnergy": 759,
		"chemicalSymbol": "Mo",
		"name": "Molybdenum",
		"russianName": "Молибден",
		"electronCongiguration": "[Kr] 4d⁵ 5s¹",
		"electronegativity": 2.16,
		"oxidationStates": [6],
		"gridPositionRowColumn": [5, 7],
		"backgroundColor": "#ffc0c0"
	  },
	  {
		"atomicNumber": 43,
		"standartAtomicWeight": 98,
		"ionizationEnergy": 760,
		"chemicalSymbol": "Tc",
		"name": "Technetium",
		"russianName": "Технеций",
		"electronCongiguration": "[Kr] 4d⁵ 5s²",
		"electronegativity": 1.9,
		"oxidationStates": [7],
		"gridPositionRowColumn": [5, 8],
		"backgroundColor": "#ffc0c0"
	  },
	  {
		"atomicNumber": 44,
		"standartAtomicWeight": 101.07,
		"ionizationEnergy": 760,
		"chemicalSymbol": "Ru",
		"name": "Ruthenium",
		"russianName": "Рутений",
		"electronCongiguration": "[Kr] 4d⁷ 5s¹",
		"electronegativity": 2.2,
		"oxidationStates": [3],
		"gridPositionRowColumn": [5, 9],
		"backgroundColor": "#ffc0c0"
	  },
	  {
		"atomicNumber": 45,
		"standartAtomicWeight": 102.91,
		"ionizationEnergy": 761,
		"chemicalSymbol": "Rh",
		"name": "Rhodium",
		"russianName": "Родий",
		"electronCongiguration": "[Kr] 4d^8 5s¹",
		"electronegativity": 2.28,
		"oxidationStates": [3],
		"gridPositionRowColumn": [5, 10],
		"backgroundColor": "#ffc0c0"
	  },
	  {
		"atomicNumber": 46,
		"standartAtomicWeight": 106.42,
		"ionizationEnergy": 760,
		"chemicalSymbol": "Pd",
		"name": "Palladium",
		"russianName": "Палладий",
		"electronCongiguration": "[Kr] 4d¹⁰",
		"electronegativity": 2.2,
		"oxidationStates": [2, 4],
		"gridPositionRowColumn": [5, 11],
		"backgroundColor": "#ffc0c0"
	  },
	  {
		"atomicNumber": 47,
		"standartAtomicWeight": 107.87,
		"ionizationEnergy": 761,
		"chemicalSymbol": "Ag",
		"name": "Silver",
		"russianName": "Серебро",
		"electronCongiguration": "[Kr] 4d¹⁰ 5s¹",
		"electronegativity": 1.93,
		"oxidationStates": [1],
		"gridPositionRowColumn": [5, 12],
		"backgroundColor": "#ffc0c0"
	  },
	  {
		"atomicNumber": 48,
		"standartAtomicWeight": 112.41,
		"ionizationEnergy": 760,
		"chemicalSymbol": "Cd",
		"name": "Cadmium",
		"russianName": "Кадмий",
		"electronCongiguration": "[Kr] 4d¹⁰ 5s²",
		"electronegativity": 1.69,
		"oxidationStates": [2],
		"gridPositionRowColumn": [5, 13],
		"backgroundColor": "#CCCCCC"
	  },
	  {
		"atomicNumber": 49,
		"standartAtomicWeight": 114.82,
		"ionizationEnergy": 760,
		"chemicalSymbol": "In",
		"name": "Indium",
		"russianName": "Индий",
		"electronCongiguration": "[Kr] 4d¹⁰ 5s² 5p¹",
		"electronegativity": 1.78,
		"oxidationStates": [3],
		"gridPositionRowColumn": [5, 14],
		"backgroundColor": "#CCCCCC"
	  },
	  {
		"atomicNumber": 50,
		"standartAtomicWeight": 118.71,
		"ionizationEnergy": 760,
		"chemicalSymbol": "Sn",
		"name": "Tin",
		"russianName": "Олово",
		"electronCongiguration": "[Kr] 4d¹⁰ 5s² 5p²",
		"electronegativity": 1.96,
		"oxidationStates": [4, 2],
		"gridPositionRowColumn": [5, 15],
		"backgroundColor": "#CCCCCC"
	  },
	  {
		"atomicNumber": 51,
		"standartAtomicWeight": 121.76,
		"ionizationEnergy": 761,
		"chemicalSymbol": "Sb",
		"name": "Antimony",
		"russianName": "Сурьма",
		"electronCongiguration": "[Kr] 4d¹⁰ 5s² 5p³",
		"electronegativity": 2.05,
		"oxidationStates": [3, 5],
		"gridPositionRowColumn": [5, 16],
		"backgroundColor": "#cccc99"
	  },
	  {
		"atomicNumber": 52,
		"standartAtomicWeight": 127.6,
		"ionizationEnergy": 760,
		"chemicalSymbol": "Te",
		"name": "Tellurium",
		"russianName": "Теллур",
		"electronCongiguration": "[Kr] 4d¹⁰ 5s² 5p⁴",
		"electronegativity": 2.1,
		"oxidationStates": [4, 6],
		"gridPositionRowColumn": [5, 17],
		"backgroundColor": "#cccc99"
	  },
	  {
		"atomicNumber": 53,
		"standartAtomicWeight": 126.9,
		"ionizationEnergy": 762,
		"chemicalSymbol": "I",
		"name": "Iodine",
		"russianName": "Иод",
		"electronCongiguration": "[Kr] 4d¹⁰ 5s² 5p⁵",
		"electronegativity": 2.66,
		"oxidationStates": [-1, 1, 3, 5, 7],
		"gridPositionRowColumn": [5, 18],
		"backgroundColor": "#F6FF99"
	  },
	  {
		"atomicNumber": 54,
		"standartAtomicWeight": 131.29,
		"ionizationEnergy": 760,
		"chemicalSymbol": "Xe",
		"name": "Xenon",
		"russianName": "Ксенон",
		"electronCongiguration": "[Kr] 4d¹⁰ 5s² 5p⁶",
		"electronegativity": null,
		"oxidationStates": "",
		"gridPositionRowColumn": [5, 19],
		"backgroundColor": "#c0ffff"
	  },
	  {
		"atomicNumber": 55,
		"standartAtomicWeight": 132.91,
		"ionizationEnergy": 761,
		"chemicalSymbol": "Cs",
		"name": "Cesium",
		"russianName": "Цезий",
		"electronCongiguration": "[Xe] 6s¹",
		"electronegativity": 0.79,
		"oxidationStates": [1],
		"gridPositionRowColumn": [6, 1],
		"backgroundColor": "#ff6666"
	  },
	  {
		"atomicNumber": 56,
		"standartAtomicWeight": 137.33,
		"ionizationEnergy": 762,
		"chemicalSymbol": "Ba",
		"name": "Barium",
		"russianName": "Барий",
		"electronCongiguration": "[Xe] 6s²",
		"electronegativity": 0.89,
		"oxidationStates": [2],
		"gridPositionRowColumn": [6, 2],
		"backgroundColor": "#FDEBC4"
	  },
	  {
		"atomicNumber": 57,
		"standartAtomicWeight": 138.91,
		"ionizationEnergy": 761,
		"chemicalSymbol": "La",
		"name": "Lanthanum",
		"russianName": "Лантан",
		"electronCongiguration": "[Xe] 5d¹ 6s²",
		"electronegativity": 1.1,
		"oxidationStates": [3],
		"gridPositionRowColumn": [6, 3],
		"backgroundColor": "#ffbfff"
	  },
	  {
		"atomicNumber": 58,
		"standartAtomicWeight": 140.12,
		"ionizationEnergy": 762,
		"chemicalSymbol": "Ce",
		"name": "Cerium",
		"russianName": "Церий",
		"electronCongiguration": "[Xe] 4f¹ 5d¹ 6s²",
		"electronegativity": 1.12,
		"oxidationStates": [4],
		"gridPositionRowColumn": [9, 5],
		"backgroundColor": "#ffbfff"
	  },
	  {
		"atomicNumber": 59,
		"standartAtomicWeight": 140.91,
		"ionizationEnergy": 761,
		"chemicalSymbol": "Pr",
		"name": "Praseodymium",
		"russianName": "Празеодим",
		"electronCongiguration": "[Xe] 4f³ 6s²",
		"electronegativity": 1.13,
		"oxidationStates": [3, 4],
		"gridPositionRowColumn": [9, 6],
		"backgroundColor": "#ffbfff"
	  },
	  {
		"atomicNumber": 60,
		"standartAtomicWeight": 144.24,
		"ionizationEnergy": 762,
		"chemicalSymbol": "Nd",
		"name": "Neodymium",
		"russianName": "Неодим",
		"electronCongiguration": "[Xe] 4f⁴ 6s²",
		"electronegativity": 1.14,
		"oxidationStates": [3],
		"gridPositionRowColumn": [9, 7],
		"backgroundColor": "#ffbfff"
	  },
	  {
		"atomicNumber": 61,
		"standartAtomicWeight": 145,
		"ionizationEnergy": 761,
		"chemicalSymbol": "Pm",
		"name": "Promethium",
		"russianName": "Прометий",
		"electronCongiguration": "[Xe] 4f⁵ 6s²",
		"electronegativity": null,
		"oxidationStates": [3],
		"gridPositionRowColumn": [9, 8],
		"backgroundColor": "#ffbfff"
	  },
	  {
		"atomicNumber": 62,
		"standartAtomicWeight": 150.36,
		"ionizationEnergy": 762,
		"chemicalSymbol": "Sm",
		"name": "Samarium",
		"russianName": "Самарий",
		"electronCongiguration": "[Xe] 4f^6 6s²",
		"electronegativity": 1.17,
		"oxidationStates": [2, 3],
		"gridPositionRowColumn": [9, 9],
		"backgroundColor": "#ffbfff"
	  },
	  {
		"atomicNumber": 63,
		"standartAtomicWeight": 151.96,
		"ionizationEnergy": 761,
		"chemicalSymbol": "Eu",
		"name": "Europium",
		"russianName": "Европий",
		"electronCongiguration": "[Xe] 4f⁷ 6s²",
		"electronegativity": 1.2,
		"oxidationStates": [2, 3],
		"gridPositionRowColumn": [9, 10],
		"backgroundColor": "#ffbfff"
	  },
	  {
		"atomicNumber": 64,
		"standartAtomicWeight": 157.25,
		"ionizationEnergy": 762,
		"chemicalSymbol": "Gd",
		"name": "Gadolinium",
		"russianName": "Гадолиний",
		"electronCongiguration": "[Xe] 4f⁷ 5d¹ 6s²",
		"electronegativity": 1.2,
		"oxidationStates": [3],
		"gridPositionRowColumn": [9, 11],
		"backgroundColor": "#ffbfff"
	  },
	  {
		"atomicNumber": 65,
		"standartAtomicWeight": 158.93,
		"ionizationEnergy": 761,
		"chemicalSymbol": "Tb",
		"name": "Terbium",
		"russianName": "Тербий",
		"electronCongiguration": "[Xe] 4f⁹ 6s²",
		"electronegativity": 1.2,
		"oxidationStates": [3, 4],
		"gridPositionRowColumn": [9, 12],
		"backgroundColor": "#ffbfff"
	  },
	  {
		"atomicNumber": 66,
		"standartAtomicWeight": 162.5,
		"ionizationEnergy": 762,
		"chemicalSymbol": "Dy",
		"name": "Dysprosium",
		"russianName": "Диспрозий",
		"electronCongiguration": "[Xe] 4f¹⁰ 6s²",
		"electronegativity": 1.22,
		"oxidationStates": [3],
		"gridPositionRowColumn": [9, 13],
		"backgroundColor": "#ffbfff"
	  },
	  {
		"atomicNumber": 67,
		"standartAtomicWeight": 164.93,
		"ionizationEnergy": 761,
		"chemicalSymbol": "Ho",
		"name": "Holmium",
		"russianName": "Гольмий",
		"electronCongiguration": "[Xe] 4f¹¹ 6s²",
		"electronegativity": 1.23,
		"oxidationStates": [3],
		"gridPositionRowColumn": [9, 14],
		"backgroundColor": "#ffbfff"
	  },
	  {
		"atomicNumber": 68,
		"standartAtomicWeight": 167.26,
		"ionizationEnergy": 762,
		"chemicalSymbol": "Er",
		"name": "Erbium",
		"russianName": "Эрбий",
		"electronCongiguration": "[Xe] 4f¹² 6s²",
		"electronegativity": 1.24,
		"oxidationStates": [3],
		"gridPositionRowColumn": [9, 15],
		"backgroundColor": "#ffbfff"
	  },
	  {
		"atomicNumber": 69,
		"standartAtomicWeight": 168.93,
		"ionizationEnergy": 761,
		"chemicalSymbol": "Tm",
		"name": "Thulium",
		"russianName": "Тулий",
		"electronCongiguration": "[Xe] 4f¹3 6s²",
		"electronegativity": 1.25,
		"oxidationStates": [2, 3],
		"gridPositionRowColumn": [9, 16],
		"backgroundColor": "#ffbfff"
	  },
	  {
		"atomicNumber": 70,
		"standartAtomicWeight": 173.04,
		"ionizationEnergy": 762,
		"chemicalSymbol": "Yb",
		"name": "Ytterbium",
		"russianName": "Иттербий",
		"electronCongiguration": "[Xe] 4f¹⁴ 6s²",
		"electronegativity": 1.1,
		"oxidationStates": [2, 3],
		"gridPositionRowColumn": [9, 17],
		"backgroundColor": "#ffbfff"
	  },
	  {
		"atomicNumber": 71,
		"standartAtomicWeight": 174.97,
		"ionizationEnergy": 761,
		"chemicalSymbol": "Lu",
		"name": "Lutetium",
		"russianName": "Лютеций",
		"electronCongiguration": "[Xe] 4f¹⁴ 5d¹ 6s²",
		"electronegativity": 1.27,
		"oxidationStates": [3],
		"gridPositionRowColumn": [9, 18],
		"backgroundColor": "#ffbfff"
	  },
	  {
		"atomicNumber": 72,
		"standartAtomicWeight": 178.49,
		"ionizationEnergy": 762,
		"chemicalSymbol": "Hf",
		"name": "Hafnium",
		"russianName": "Гафний",
		"electronCongiguration": "[Xe] 4f¹⁴ 5d² 6s²",
		"electronegativity": 1.3,
		"oxidationStates": [4],
		"gridPositionRowColumn": [6, 5],
		"backgroundColor": "#ffc0c0"
	  },
	  {
		"atomicNumber": 73,
		"standartAtomicWeight": 180.95,
		"ionizationEnergy": 761,
		"chemicalSymbol": "Ta",
		"name": "Tantalum",
		"russianName": "Тантал",
		"electronCongiguration": "[Xe] 4f¹⁴ 5d³ 6s²",
		"electronegativity": 1.5,
		"oxidationStates": [5],
		"gridPositionRowColumn": [6, 6],
		"backgroundColor": "#ffc0c0"
	  },
	  {
		"atomicNumber": 74,
		"standartAtomicWeight": 183.84,
		"ionizationEnergy": 762,
		"chemicalSymbol": "W",
		"name": "Tungsten",
		"russianName": "Вольфрам",
		"electronCongiguration": "[Xe] 4f¹⁴ 5d⁴ 6s²",
		"electronegativity": 2.36,
		"oxidationStates": [6],
		"gridPositionRowColumn": [6, 7],
		"backgroundColor": "#ffc0c0"
	  },
	  {
		"atomicNumber": 75,
		"standartAtomicWeight": 186.21,
		"ionizationEnergy": 761,
		"chemicalSymbol": "Re",
		"name": "Rhenium",
		"russianName": "Рений",
		"electronCongiguration": "[Xe] 4f¹⁴ 5d⁵ 6s²",
		"electronegativity": 1.9,
		"oxidationStates": [7],
		"gridPositionRowColumn": [6, 8],
		"backgroundColor": "#ffc0c0"
	  },
	  {
		"atomicNumber": 76,
		"standartAtomicWeight": 190.23,
		"ionizationEnergy": 762,
		"chemicalSymbol": "Os",
		"name": "Osmium",
		"russianName": "Осмий",
		"electronCongiguration": "[Xe] 4f¹⁴ 5d^6 6s²",
		"electronegativity": 2.2,
		"oxidationStates": [4],
		"gridPositionRowColumn": [6, 9],
		"backgroundColor": "#ffc0c0"
	  },
	  {
		"atomicNumber": 77,
		"standartAtomicWeight": 192.22,
		"ionizationEnergy": 761,
		"chemicalSymbol": "Ir",
		"name": "Iridium",
		"russianName": "Иридий",
		"electronCongiguration": "[Xe] 4f¹⁴ 5d⁷ 6s²",
		"electronegativity": 2.2,
		"oxidationStates": [3],
		"gridPositionRowColumn": [6, 10],
		"backgroundColor": "#ffc0c0"
	  },
	  {
		"atomicNumber": 78,
		"standartAtomicWeight": 195.08,
		"ionizationEnergy": 762,
		"chemicalSymbol": "Pt",
		"name": "Platinum",
		"russianName": "Платина",
		"electronCongiguration": "[Xe] 4f¹⁴ 5d⁹ 6s¹",
		"electronegativity": 2.28,
		"oxidationStates": [2, 4],
		"gridPositionRowColumn": [6, 11],
		"backgroundColor": "#ffc0c0"
	  },
	  {
		"atomicNumber": 79,
		"standartAtomicWeight": 196.97,
		"ionizationEnergy": 761,
		"chemicalSymbol": "Au",
		"name": "Gold",
		"russianName": "Золото",
		"electronCongiguration": "[Xe] 4f¹⁴ 5d¹⁰ 6s¹",
		"electronegativity": 2.54,
		"oxidationStates": [1, 3],
		"gridPositionRowColumn": [6, 12],
		"backgroundColor": "#ffc0c0"
	  },
	  {
		"atomicNumber": 80,
		"standartAtomicWeight": 200.59,
		"ionizationEnergy": 762,
		"chemicalSymbol": "Hg",
		"name": "Mercury",
		"russianName": "Ртуть",
		"electronCongiguration": "[Xe] 4f¹⁴ 5d¹⁰ 6s²",
		"electronegativity": 2,
		"oxidationStates": [1, 2],
		"gridPositionRowColumn": [6, 13],
		"backgroundColor": "#CCCCCC"
	  },
	  {
		"atomicNumber": 81,
		"standartAtomicWeight": 204.38,
		"ionizationEnergy": 715,
		"chemicalSymbol": "Tl",
		"name": "Thallium",
		"russianName": "Таллий",
		"electronCongiguration": "[Xe] 4f¹⁴ 5d¹⁰ 6s² 6p¹",
		"electronegativity": 1.62,
		"oxidationStates": [1, 3],
		"gridPositionRowColumn": [6, 14],
		"backgroundColor": "#CCCCCC"
	  },
	  {
		"atomicNumber": 82,
		"standartAtomicWeight": 207.2,
		"ionizationEnergy": 716,
		"chemicalSymbol": "Pb",
		"name": "Lead",
		"russianName": "Свинец",
		"electronCongiguration": "[Xe] 4f¹⁴ 5d¹⁰ 6s² 6p²",
		"electronegativity": 2.33,
		"oxidationStates": [2, 4],
		"gridPositionRowColumn": [6, 15],
		"backgroundColor": "#CCCCCC"
	  },
	  {
		"atomicNumber": 83,
		"standartAtomicWeight": 208.98,
		"ionizationEnergy": 717,
		"chemicalSymbol": "Bi",
		"name": "Bismuth",
		"russianName": "Висмут",
		"electronCongiguration": "[Xe] 4f¹⁴ 5d¹⁰ 6s² 6p³",
		"electronegativity": 2.02,
		"oxidationStates": [3, 5],
		"gridPositionRowColumn": [6, 16],
		"backgroundColor": "#CCCCCC"
	  },
	  {
		"atomicNumber": 84,
		"standartAtomicWeight": 209,
		"ionizationEnergy": 815,
		"chemicalSymbol": "Po",
		"name": "Polonium",
		"russianName": "Полоний",
		"electronCongiguration": "[Xe] 4f¹⁴ 5d¹⁰ 6s² 6p⁴",
		"electronegativity": 2,
		"oxidationStates": [2, 4, 6],
		"gridPositionRowColumn": [6, 17],
		"backgroundColor": "#CCCCCC"
	  },
	  {
		"atomicNumber": 85,
		"standartAtomicWeight": 210,
		"ionizationEnergy": 823,
		"chemicalSymbol": "At",
		"name": "Astatine",
		"russianName": "Астат",
		"electronCongiguration": "[Xe] 4f¹⁴ 5d¹⁰ 6s² 6p⁵",
		"electronegativity": 2.2,
		"oxidationStates": [-1, 1, 3, 5, 7],
		"gridPositionRowColumn": [6, 18],
		"backgroundColor": "#cccc99"
	  },
	  {
		"atomicNumber": 86,
		"standartAtomicWeight": 222,
		"ionizationEnergy": 828,
		"chemicalSymbol": "Rn",
		"name": "Radon",
		"russianName": "Радон",
		"electronCongiguration": "[Xe] 4f¹⁴ 5d¹⁰ 6s² 6p⁶",
		"electronegativity": null,
		"oxidationStates": "",
		"gridPositionRowColumn": [6, 19],
		"backgroundColor": "#c0ffff"
	  },
	  {
		"atomicNumber": 87,
		"standartAtomicWeight": 223,
		"ionizationEnergy": 834,
		"chemicalSymbol": "Fr",
		"name": "Francium",
		"russianName": "Франций",
		"electronCongiguration": "[Rn] 7s¹",
		"electronegativity": 0.7,
		"oxidationStates": [1],
		"gridPositionRowColumn": [7, 1],
		"backgroundColor": "#ff6666"
	  },
	  {
		"atomicNumber": 88,
		"standartAtomicWeight": 226,
		"ionizationEnergy": 890,
		"chemicalSymbol": "Ra",
		"name": "Radium",
		"russianName": "Радий",
		"electronCongiguration": "[Rn] 7s²",
		"electronegativity": 0.9,
		"oxidationStates": [2],
		"gridPositionRowColumn": [7, 2],
		"backgroundColor": "#FDEBC4"
	  },
	  {
		"atomicNumber": 89,
		"standartAtomicWeight": 227,
		"ionizationEnergy": 1007,
		"chemicalSymbol": "Ac",
		"name": "Actinium",
		"russianName": "Актиний",
		"electronCongiguration": "[Rn] 6d¹ 7s²",
		"electronegativity": 1.1,
		"oxidationStates": [3],
		"gridPositionRowColumn": [7, 3],
		"backgroundColor": "#ff99cc"
	  },
	  {
		"atomicNumber": 90,
		"standartAtomicWeight": 232.04,
		"ionizationEnergy": 1170,
		"chemicalSymbol": "Th",
		"name": "Thorium",
		"russianName": "Торий",
		"electronCongiguration": "[Rn] 6d² 7s²",
		"electronegativity": 1.3,
		"oxidationStates": [4],
		"gridPositionRowColumn": [10, 5],
		"backgroundColor": "#ff99cc"
	  },
	  {
		"atomicNumber": 91,
		"standartAtomicWeight": 231.04,
		"ionizationEnergy": 581,
		"chemicalSymbol": "Pa",
		"name": "Protactinium",
		"russianName": "Протактиний",
		"electronCongiguration": "[Rn] 5f² 6d¹ 7s²",
		"electronegativity": 1.5,
		"oxidationStates": [5],
		"gridPositionRowColumn": [10, 6],
		"backgroundColor": "#ff99cc"
	  },
	  {
		"atomicNumber": 92,
		"standartAtomicWeight": 238.03,
		"ionizationEnergy": 592,
		"chemicalSymbol": "U",
		"name": "Uranium",
		"russianName": "Уран",
		"electronCongiguration": "[Rn] 5f³ 6d¹ 7s²",
		"electronegativity": 1.38,
		"oxidationStates": [6],
		"gridPositionRowColumn": [10, 7],
		"backgroundColor": "#ff99cc"
	  },
	  {
		"atomicNumber": 93,
		"standartAtomicWeight": 237,
		"ionizationEnergy": 619,
		"chemicalSymbol": "Np",
		"name": "Neptunium",
		"russianName": "Нептуний",
		"electronCongiguration": "[Rn] 5f⁴ 6d¹ 7s²",
		"electronegativity": 1.36,
		"oxidationStates": [5, 6],
		"gridPositionRowColumn": [10, 8],
		"backgroundColor": "#ff99cc"
	  },
	  {
		"atomicNumber": 94,
		"standartAtomicWeight": 244,
		"ionizationEnergy": 597,
		"chemicalSymbol": "Pu",
		"name": "Plutonium",
		"russianName": "Плутоний",
		"electronCongiguration": "[Rn] 5f^6 7s²",
		"electronegativity": 1.28,
		"oxidationStates": [4, 6],
		"gridPositionRowColumn": [10, 9],
		"backgroundColor": "#ff99cc"
	  },
	  {
		"atomicNumber": 95,
		"standartAtomicWeight": 243,
		"ionizationEnergy": 578,
		"chemicalSymbol": "Am",
		"name": "Americium",
		"russianName": "Амерций",
		"electronCongiguration": "[Rn] 5f⁷ 7s²",
		"electronegativity": 1.13,
		"oxidationStates": [3, 4],
		"gridPositionRowColumn": [10, 10],
		"backgroundColor": "#ff99cc"
	  },
	  {
		"atomicNumber": 96,
		"standartAtomicWeight": 247,
		"ionizationEnergy": 499,
		"chemicalSymbol": "Cm",
		"name": "Curium",
		"russianName": "Кюрий",
		"electronCongiguration": "[Rn] 5f⁷ 6d¹ 7s²",
		"electronegativity": 1.28,
		"oxidationStates": [3],
		"gridPositionRowColumn": [10, 11],
		"backgroundColor": "#ff99cc"
	  },
	  {
		"atomicNumber": 97,
		"standartAtomicWeight": 247,
		"ionizationEnergy": 587,
		"chemicalSymbol": "Bk",
		"name": "Berkelium",
		"russianName": "Берклий",
		"electronCongiguration": "[Rn] 5f⁹ 7s²",
		"electronegativity": 1.3,
		"oxidationStates": [4],
		"gridPositionRowColumn": [10, 12],
		"backgroundColor": "#ff99cc"
	  },
	  {
		"atomicNumber": 98,
		"standartAtomicWeight": 251,
		"ionizationEnergy": 601,
		"chemicalSymbol": "Cf",
		"name": "Californium",
		"russianName": "Калифорний",
		"electronCongiguration": "[Rn] 5f¹⁰ 7s²",
		"electronegativity": 1.3,
		"oxidationStates": [3],
		"gridPositionRowColumn": [10, 13],
		"backgroundColor": "#ff99cc"
	  },
	  {
		"atomicNumber": 99,
		"standartAtomicWeight": 252,
		"ionizationEnergy": 608,
		"chemicalSymbol": "Es",
		"name": "Einsteinium",
		"russianName": "Эйнштейний",
		"electronCongiguration": "[Rn] 5f¹¹ 7s²",
		"electronegativity": 1.3,
		"oxidationStates": [3],
		"gridPositionRowColumn": [10, 14],
		"backgroundColor": "#ff99cc"
	  },
	  {
		"atomicNumber": 100,
		"standartAtomicWeight": 257,
		"ionizationEnergy": 619,
		"chemicalSymbol": "Fm",
		"name": "Fermium",
		"russianName": "Фермий",
		"electronCongiguration": "[Rn] 5f¹² 7s²",
		"electronegativity": 1.3,
		"oxidationStates": [3],
		"gridPositionRowColumn": [10, 15],
		"backgroundColor": "#ff99cc"
	  },
	  {
		"atomicNumber": 101,
		"standartAtomicWeight": 262,
		"ionizationEnergy": 619,
		"chemicalSymbol": "Md",
		"name": "Mendelevium",
		"russianName": "Менделевий",
		"electronCongiguration": "[Rn] 5f¹3 7s²",
		"electronegativity": 1.3,
		"oxidationStates": [3],
		"gridPositionRowColumn": [10, 16],
		"backgroundColor": "#ff99cc"
	  },
	  {
		"atomicNumber": 102,
		"standartAtomicWeight": 267,
		"ionizationEnergy": 619,
		"chemicalSymbol": "No",
		"name": "Nobelium",
		"russianName": "Нобелий",
		"electronCongiguration": "[Rn] 5f¹⁴ 7s²",
		"electronegativity": 1.3,
		"oxidationStates": [2],
		"gridPositionRowColumn": [10, 17],
		"backgroundColor": "#ff99cc"
	  },
	  {
		"atomicNumber": 103,
		"standartAtomicWeight": 270,
		"ionizationEnergy": 619,
		"chemicalSymbol": "Lr",
		"name": "Lawrencium",
		"russianName": "Лоуренсий",
		"electronCongiguration": "[Rn] 5f¹⁴ 7s² 7p¹",
		"electronegativity": 1.3,
		"oxidationStates": [3],
		"gridPositionRowColumn": [10, 18],
		"backgroundColor": "#ff99cc"
	  },
	  {
		"atomicNumber": 104,
		"standartAtomicWeight": "(261)",
		"ionizationEnergy": "580.0",
		"chemicalSymbol": "Rf",
		"name": "Rutherfordium",
		"russianName": "Резерфордий",
		"electronCongiguration": "[Rn] 5f¹⁴ 6d² 7s²",
		"electronegativity": "",
		"oxidationStates": ["+4"],
		"gridPositionRowColumn": [7, 5],
		"backgroundColor": "#ffc0c0"
	  },
	  {
		"atomicNumber": 105,
		"standartAtomicWeight": 270,
		"ionizationEnergy": "",
		"chemicalSymbol": "Db",
		"name": "Dubnium",
		"russianName": "Дубний",
		"electronCongiguration": "",
		"electronegativity": "",
		"oxidationStates": ["+5"],
		"gridPositionRowColumn": [7, 6],
		"backgroundColor": "#ffc0c0"
	  },
	  {
		"atomicNumber": 106,
		"standartAtomicWeight": "(266)",
		"ionizationEnergy": "",
		"chemicalSymbol": "Sg",
		"name": "Seaborgium",
		"russianName": "Сиборгий",
		"electronCongiguration": "",
		"electronegativity": "",
		"oxidationStates": ["+6"],
		"gridPositionRowColumn": [7, 7],
		"backgroundColor": "#ffc0c0"
	  },
	  {
		"atomicNumber": 107,
		"standartAtomicWeight": "(264)",
		"ionizationEnergy": "",
		"chemicalSymbol": "Bh",
		"name": "Bohrium",
		"russianName": "Борий",
		"electronCongiguration": "",
		"electronegativity": "",
		"oxidationStates": ["+7"],
		"gridPositionRowColumn": [7, 8],
		"backgroundColor": "#ffc0c0"
	  },
	  {
		"atomicNumber": 108,
		"standartAtomicWeight": "(277)",
		"ionizationEnergy": "",
		"chemicalSymbol": "Hs",
		"name": "Hassium",
		"russianName": "Хассий",
		"electronCongiguration": "",
		"electronegativity": "",
		"oxidationStates": ["+8"],
		"gridPositionRowColumn": [7, 9],
		"backgroundColor": "#ffc0c0"
	  },
	  {
		"atomicNumber": 109,
		"standartAtomicWeight": "(268)",
		"ionizationEnergy": "",
		"chemicalSymbol": "Mt",
		"name": "Meitnerium",
		"russianName": "Мейтнерий",
		"electronCongiguration": "",
		"electronegativity": "",
		"oxidationStates": "",
		"gridPositionRowColumn": [7, 10],
		"backgroundColor": "#E0E0E0"
	  },
	  {
		"atomicNumber": 110,
		"standartAtomicWeight": "(271)",
		"ionizationEnergy": "",
		"chemicalSymbol": "Ds",
		"name": "Darmstadtium",
		"russianName": "Дармштадтий",
		"electronCongiguration": "",
		"electronegativity": "",
		"oxidationStates": "",
		"gridPositionRowColumn": [7, 11],
		"backgroundColor": "#E0E0E0"
	  },
	  {
		"atomicNumber": 111,
		"standartAtomicWeight": "(272)",
		"ionizationEnergy": null,
		"chemicalSymbol": "Rg",
		"name": "Roentgenium",
		"russianName": "Рентгений",
		"electronCongiguration": "",
		"electronegativity": null,
		"oxidationStates": "",
		"gridPositionRowColumn": [7, 12],
		"backgroundColor": "#E0E0E0"
	  },
	  {
		"atomicNumber": 112,
		"standartAtomicWeight": "(285)",
		"ionizationEnergy": null,
		"chemicalSymbol": "Cn",
		"name": "Copernicium",
		"russianName": "Коперниций",
		"electronCongiguration": "",
		"electronegativity": null,
		"oxidationStates": "",
		"gridPositionRowColumn": [7, 13],
		"backgroundColor": "#CCCCCC"
	  },
	  {
		"atomicNumber": 113,
		"standartAtomicWeight": "(284)",
		"ionizationEnergy": null,
		"chemicalSymbol": "Nh",
		"name": "Nihonium",
		"russianName": "Нихоний",
		"electronCongiguration": "",
		"electronegativity": null,
		"oxidationStates": "",
		"gridPositionRowColumn": [7, 14],
		"backgroundColor": "#E0E0E0"
	  },
	  {
		"atomicNumber": 114,
		"standartAtomicWeight": "(289)",
		"ionizationEnergy": null,
		"chemicalSymbol": "Fl",
		"name": "Flerovium",
		"russianName": "Флеровий",
		"electronCongiguration": "",
		"electronegativity": null,
		"oxidationStates": "",
		"gridPositionRowColumn": [7, 15],
		"backgroundColor": "#E0E0E0"
	  },
	  {
		"atomicNumber": 115,
		"standartAtomicWeight": "(288)",
		"ionizationEnergy": null,
		"chemicalSymbol": "Mc",
		"name": "Moscovium",
		"russianName": "Московий",
		"electronCongiguration": "",
		"electronegativity": null,
		"oxidationStates": "",
		"gridPositionRowColumn": [7, 16],
		"backgroundColor": "#E0E0E0"
	  },
	  {
		"atomicNumber": 116,
		"standartAtomicWeight": "(292)",
		"ionizationEnergy": null,
		"chemicalSymbol": "Lv",
		"name": "Livermorium",
		"russianName": "Ливерморий",
		"electronCongiguration": "",
		"electronegativity": null,
		"oxidationStates": "",
		"gridPositionRowColumn": [7, 17],
		"backgroundColor": "#E0E0E0"
	  },
	  {
		"atomicNumber": 117,
		"standartAtomicWeight": "(294)",
		"ionizationEnergy": null,
		"chemicalSymbol": "Ts",
		"name": "Tennessine",
		"russianName": "Теннессин",
		"electronCongiguration": "",
		"electronegativity": null,
		"oxidationStates": "",
		"gridPositionRowColumn": [7, 18],
		"backgroundColor": "#E0E0E0"
	  },
	  {
		"atomicNumber": 118,
		"standartAtomicWeight": "(294)",
		"ionizationEnergy": null,
		"chemicalSymbol": "Og",
		"name": "Oganesson",
		"russianName": "Оганесон",
		"electronCongiguration": "",
		"electronegativity": null,
		"oxidationStates": "",
		"gridPositionRowColumn": [7, 19],
		"backgroundColor": "#E0E0E0"
	  }
  ]
  